<?xml version="1.0"?>
<VTKFile type="PolyData" version="0.1" byte_order="LittleEndian" header_type="UInt32">
  <PolyData>
    <Piece NumberOfPoints="60" NumberOfVerts="0" NumberOfLines="1" NumberOfStrips="0" NumberOfPolys="0">
      <PointData Normals="Normals">
        <DataArray type="Float32" Name="Normals" NumberOfComponents="3" format="ascii" RangeMin="0.9930632981314488" RangeMax="0.9985334429058519">
          0.9985334277153015 0 0 0.9876232147216797 0.10380338877439499 0
          0.9767130613327026 0.20760677754878998 0 0.9444593191146851 0.3068734407424927 0
          0.9122056365013123 0.40614011883735657 0 0.8600180745124817 0.4965316653251648 0
          0.8078305125236511 0.5869232416152954 0 0.7379899024963379 0.6644890904426575 0
          0.6681492924690247 0.7420549392700195 0 0.5837079882621765 0.8034051656723022 0
          0.49926671385765076 0.8647553324699402 0 0.40391525626182556 0.9072085618972778 0
          0.30856379866600037 0.9496617317199707 0 0.20646947622299194 0.9713625311851501 0
          0.10437516123056412 0.9930633306503296 0 0 0.9930633306503296 0
          -0.10437516123056412 0.9930633306503296 0 -0.20646947622299194 0.9713625311851501 0
          -0.30856379866600037 0.9496617317199707 0 -0.40391525626182556 0.9072085618972778 0
          -0.49926671385765076 0.8647553324699402 0 -0.5837079882621765 0.8034051656723022 0
          -0.6681492924690247 0.7420549392700195 0 -0.7379899024963379 0.6644890904426575 0
          -0.8078305125236511 0.5869232416152954 0 -0.8600180745124817 0.4965316653251648 0
          -0.9122056365013123 0.40614011883735657 0 -0.9444593191146851 0.3068734407424927 0
          -0.9767130613327026 0.20760677754878998 0 -0.9876232147216797 0.10380338877439499 0
          -0.9985334277153015 1.2228507456902947e-16 0 -0.9876232147216797 -0.10380338877439499 0
          -0.9767130613327026 -0.20760677754878998 0 -0.9444593191146851 -0.3068734407424927 0
          -0.9122056365013123 -0.40614011883735657 0 -0.8600180745124817 -0.4965316653251648 0
          -0.8078305125236511 -0.5869232416152954 0 -0.7379899024963379 -0.6644890904426575 0
          -0.6681492924690247 -0.7420549392700195 0 -0.5837079882621765 -0.8034051656723022 0
          -0.49926671385765076 -0.8647553324699402 0 -0.40391525626182556 -0.9072085618972778 0
          -0.30856379866600037 -0.9496617317199707 0 -0.20646947622299194 -0.9713625311851501 0
          -0.10437516123056412 -0.9930633306503296 0 0 -0.9930633306503296 0
          0.10437516123056412 -0.9930633306503296 0 0.20646947622299194 -0.9713625311851501 0
          0.30856379866600037 -0.9496617317199707 0 0.40391525626182556 -0.9072085618972778 0
          0.49926671385765076 -0.8647553324699402 0 0.5837079882621765 -0.8034051656723022 0
          0.6681492924690247 -0.7420549392700195 0 0.7379899024963379 -0.6644890904426575 0
          0.8078305125236511 -0.5869232416152954 0 0.8600180745124817 -0.4965316653251648 0
          0.9122056365013123 -0.40614011883735657 0 0.9444593191146851 -0.3068734407424927 0
          0.9767130613327026 -0.20760677754878998 0 0.9876232147216797 -0.10380338877439499 0
          <InformationKey name="L2_NORM_RANGE" location="vtkDataArray" length="2">
            <Value index="0">
              0.99306329813
            </Value>
            <Value index="1">
              0.99853344291
            </Value>
          </InformationKey>
        </DataArray>
      </PointData>
      <CellData>
      </CellData>
      <Points>
        <DataArray type="Float32" Name="Points" NumberOfComponents="3" format="ascii" RangeMin="36.64015346430475" RangeMax="76.51897899045792">
          59.97066879272461 40 0 59.752464294433594 42.07606506347656 0
          59.53425979614258 44.15213394165039 0 58.88918685913086 46.13746643066406 0
          58.24411392211914 48.122802734375 0 57.20036315917969 49.930633544921875 0
          56.15660858154297 51.73846435546875 0 54.759796142578125 53.28977966308594 0
          53.36298370361328 54.84109878540039 0 51.674156188964844 56.06809997558594 0
          49.98533248901367 57.29510498046875 0 48.078304290771484 58.144168853759766 0
          46.1712760925293 58.99323272705078 0 44.12938690185547 59.427249908447266 0
          42.087501525878906 59.86126708984375 0 40 59.86126708984375 0
          37.912498474121094 59.86126708984375 0 35.87061309814453 59.427249908447266 0
          33.8287239074707 58.99323272705078 0 31.921695709228516 58.144168853759766 0
          30.014665603637695 57.29510498046875 0 28.32583999633789 56.06809997558594 0
          26.637014389038086 54.84109878540039 0 25.240201950073242 53.28977966308594 0
          23.8433895111084 51.73846435546875 0 22.799636840820312 49.930633544921875 0
          21.75588607788086 48.122802734375 0 21.11081314086914 46.13746643066406 0
          20.46573829650879 44.15213394165039 0 20.247535705566406 42.07606506347656 0
          20.02933120727539 40 0 20.247535705566406 37.92393493652344 0
          20.46573829650879 35.84786605834961 0 21.11081314086914 33.86253356933594 0
          21.75588607788086 31.877197265625 0 22.799636840820312 30.069366455078125 0
          23.8433895111084 28.26153564453125 0 25.240201950073242 26.71021842956543 0
          26.637014389038086 25.15890121459961 0 28.32583999633789 23.931896209716797 0
          30.014665603637695 22.704893112182617 0 31.921695709228516 21.8558292388916 0
          33.8287239074707 21.006765365600586 0 35.87061309814453 20.572750091552734 0
          37.912498474121094 20.13873291015625 0 40 20.13873291015625 0
          42.087501525878906 20.13873291015625 0 44.12938690185547 20.572750091552734 0
          46.1712760925293 21.006765365600586 0 48.078304290771484 21.8558292388916 0
          49.98533248901367 22.704893112182617 0 51.674156188964844 23.931896209716797 0
          53.36298370361328 25.15890121459961 0 54.759796142578125 26.71021842956543 0
          56.15660858154297 28.26153564453125 0 57.20036315917969 30.069366455078125 0
          58.24411392211914 31.877197265625 0 58.88918685913086 33.86253356933594 0
          59.53425979614258 35.84786605834961 0 59.752464294433594 37.92393493652344 0
          <InformationKey name="L2_NORM_RANGE" location="vtkDataArray" length="2">
            <Value index="0">
              36.640153464
            </Value>
            <Value index="1">
              76.51897899
            </Value>
          </InformationKey>
        </DataArray>
      </Points>
      <Verts>
        <DataArray type="Int64" Name="connectivity" format="ascii" RangeMin="1e+299" RangeMax="-1e+299">
        </DataArray>
        <DataArray type="Int64" Name="offsets" format="ascii" RangeMin="1e+299" RangeMax="-1e+299">
        </DataArray>
      </Verts>
      <Lines>
        <DataArray type="Int64" Name="connectivity" format="ascii" RangeMin="0" RangeMax="59">
          0 1 2 3 4 5
          6 7 8 9 10 11
          12 13 14 15 16 17
          18 19 20 21 22 23
          24 25 26 27 28 29
          30 31 32 33 34 35
          36 37 38 39 40 41
          42 43 44 45 46 47
          48 49 50 51 52 53
          54 55 56 57 58 59
          0
        </DataArray>
        <DataArray type="Int64" Name="offsets" format="ascii" RangeMin="61" RangeMax="61">
          61
        </DataArray>
      </Lines>
      <Strips>
        <DataArray type="Int64" Name="connectivity" format="ascii" RangeMin="0" RangeMax="59">
        </DataArray>
        <DataArray type="Int64" Name="offsets" format="ascii" RangeMin="61" RangeMax="61">
        </DataArray>
      </Strips>
      <Polys>
        <DataArray type="Int64" Name="connectivity" format="ascii" RangeMin="0" RangeMax="59">
        </DataArray>
        <DataArray type="Int64" Name="offsets" format="ascii" RangeMin="61" RangeMax="61">
        </DataArray>
      </Polys>
    </Piece>
  </PolyData>
</VTKFile>
